LAMMPS data file via write_data, version 10 Dec 2025, timestep = 10, units = metal

64 atoms
1 atom types

-0.013065683112394455 10.900470428991317 xlo xhi
-0.013065683112394455 10.900470428991317 ylo yhi
-0.013065683112394455 10.900470428991317 zlo zhi

Masses

1 28.08499999277529

Atoms # atomic/kk

1 1 4.152438060749398 4.0973741153885195 1.31465572504149 0 0 0
2 1 0.12221925913052897 2.8124425317298076 2.7126658548309814 0 0 0
3 1 4.051374514155799 1.3975249802725818 4.023647165142459 0 0 0
5 1 1.4259748556995033 4.094271592066435 3.915056452307849 0 0 0
6 1 2.667198358038862 2.636080925638267 0.04495499668713504 0 0 0
7 1 1.3632564749248148 1.3843794815859132 1.3689510367367568 0 0 0
8 1 2.7433645993516578 0.020302916520660064 2.726754695691717 0 0 0
24 1 2.763860306416396 5.438919164573255 2.644936276906176 0 0 0
33 1 9.353603491354077 4.145070969685598 1.3170638919948137 0 0 0
34 1 5.540864846440659 2.6799751497405047 2.708348506392652 0 0 0
35 1 9.47586874460256 1.4454680871785532 4.010138440339504 0 0 0
37 1 6.780259406769183 4.11210601597547 4.0400351685756375 0 0 0
38 1 8.181547854051294 2.7361198324011937 0.06033661727105698 0 0 0
39 1 6.81028902192019 1.4660273428602908 1.3132331079716155 0 0 0
36 1 5.432405178221851 10.845138864927534 0.02500312813716011 0 -1 0
17 1 4.07798137257044 9.500035602590879 1.3906552074928291 0 0 0
19 1 4.052530005561826 6.813916532961097 4.104448563154942 0 0 0
21 1 1.4675734540284273 9.441108971959496 4.060725483372364 0 0 0
23 1 1.4754102276075711 6.780419667948569 1.3532701449030844 0 0 0
50 1 5.410817013647513 8.20638238665816 2.7282928680452603 0 0 0
22 1 2.6850231482197406 8.141002740015924 0.02459346479010006 0 0 0
62 1 8.199096926992157 8.207995693613443 5.414702611845479 0 0 0
56 1 8.09889905364017 5.5491647498006555 2.698416336970382 0 0 0
55 1 6.768902941592104 6.8148102236263055 1.35623792046437 0 0 0
53 1 6.845400491275057 9.459717105823103 4.098903785789242 0 0 0
40 1 8.149538365678909 10.794220878676374 2.7735337112781426 0 -1 0
18 1 10.728975960448922 8.114339800290304 2.6847701801777157 -1 0 0
49 1 9.401929248472813 9.632888250380912 1.3289271478214348 0 0 0
51 1 9.508638694959403 6.801375943488457 4.155922889250555 0 0 0
20 1 0.001490965632932273 5.410678928530359 -0.005593605081804398 0 0 0
9 1 4.086676936739564 4.055923088955401 6.752475637716502 0 0 0
10 1 0.12841115385545995 2.770291121885024 8.06204529803514 0 0 0
11 1 4.066002930347228 1.3987929705024726 9.4530356433534 0 0 0
13 1 1.3716842457446912 4.036561770807744 9.408227336652363 0 0 0
14 1 2.6572738253749213 2.6839238249321204 5.57215236947342 0 0 0
15 1 1.3461009260102943 1.4319598344893971 6.81780874189285 0 0 0
42 1 5.430651048410748 2.730181780768663 8.142169850154847 0 0 0
41 1 9.472843927138266 4.137121337621615 6.74738456376666 0 0 0
43 1 9.532977738431802 1.226042853351364 9.528290404728946 0 0 0
45 1 6.868051047367539 3.8943213026615955 9.437381955594336 0 0 0
46 1 8.143963536136576 2.742203076833551 5.506731211108932 0 0 0
47 1 6.8019700935674345 1.3302864522456854 6.8985914515008355 0 0 0
48 1 8.122519402669557 0.015263889665765962 8.140811832264424 0 0 0
64 1 8.16419003650733 5.372181231511353 8.25296279801993 0 0 0
52 1 5.479732591591395 5.444277892206863 10.895408836365808 0 0 -1
12 1 10.800471890778466 0.07032576942844444 5.462952085081958 -1 0 0
16 1 2.7378884501745566 10.886492113116693 8.267620974650363 0 -1 0
32 1 2.697459379159646 5.509346622561426 8.232439074249335 0 0 0
25 1 4.173568133270827 9.546212554458748 6.820920944963712 0 0 0
27 1 4.032028269707736 6.917769201665916 9.526339535727494 0 0 0
29 1 1.4728262832869732 9.606525804961327 9.506362979245827 0 0 0
31 1 1.3355773870727665 6.8515620997199855 6.818960342674379 0 0 0
58 1 5.428278244581049 8.285858651343183 8.140001790458264 0 0 0
30 1 2.674247542935857 8.104302692122246 5.4581445276471445 0 0 0
4 1 10.886234406276895 10.761314548679175 10.829446977766777 -1 -1 -1
63 1 6.871194372239635 6.839249714217497 6.887938232165933 0 0 0
61 1 6.79775395982544 9.493590646854747 9.584376592242414 0 0 0
26 1 10.821113609058285 8.112170009241895 8.228249886541589 -1 0 0
60 1 5.478763095974176 5.46954461875438 5.590472658150394 0 0 0
54 1 8.211656833399587 8.085565090734724 10.870399065375814 0 0 -1
59 1 9.561424344847122 6.73752388007623 9.525188982131812 0 0 0
57 1 9.580341427955252 9.558271091240075 6.76323667374182 0 0 0
44 1 5.493300688329471 10.852061205269965 5.5009753227362435 0 -1 0
28 1 10.84657737930794 5.374209790435379 5.46032340554104 -1 0 0

Velocities

1 3.399477969434415 -0.9855915645003601 -2.7736150502997874
2 8.776662082137262 3.651857115525652 -0.1687318325048725
3 0.6816077418483563 0.3473981796208424 -5.038191441809945
5 3.5035662571884565 0.6241928364701408 -7.890032054028353
6 -0.4811571732907478 -2.5378920402457723 7.351678991002747
7 -0.12661157551858965 -0.346539235194302 1.3284232532208327
8 0.740920357863382 1.3232902418992645 1.184362668451737
24 4.253631818108189 0.06215776433269756 -2.0128958173189386
33 -10.883629099871408 4.418770635947763 -1.1790366161807397
34 2.104485003951506 -0.04058120881211121 0.8255773378092277
35 -3.752647598839813 7.2347861965229745 -6.089833095935995
37 0.010659621631043182 1.6789361659558346 -3.3067714852503145
38 2.2231289378046926 -1.450755931514102 7.4548319111986805
39 1.6814819835359744 7.988623092157099 -3.3529667928909093
36 -3.6860162636003104 -3.821495221920526 3.789789172664444
17 -1.5611122683723433 -0.6839877494353195 1.6911569463948684
19 -0.7855965668988366 0.24870536002698163 -1.306200458998988
21 12.140748223553498 -4.24741999943052 -2.7103634537501744
23 4.5698460091814965 -1.5363185553357073 -1.4688946698049614
50 -1.0229931804453647 0.1045609420544263 1.2602545525039948
22 -2.715513994825766 1.2234409376840054 3.9398322600881714
62 2.0652298868984773 1.8176483168486628 0.15868449283287772
56 -2.5500323292710902 3.3902607777930647 0.32355080463505526
55 -2.691611969581624 1.8304949001610198 0.7102369563727579
53 1.6773028745142409 -3.426834164605838 -0.8786221989467305
40 -1.767680539708965 -9.203929758534352 2.7653925118698326
18 -13.434753850883151 -3.7062071563225802 -4.844969950447918
49 -5.098314905454217 2.743251730848888 2.0948499293097167
51 -1.4407298275303357 -0.37934315365963167 2.5829911482738255
20 2.257271907913247 0.5163225604539875 2.5792364919368906
9 -0.9298717172185693 0.5024121900662628 -1.6991137214235494
10 6.674456258020409 4.066487723382672 -3.9384662083824558
11 -0.09976640838007761 2.40372221969746 -6.297936556537287
13 1.0367274688148562 -1.7409945187727431 -8.19573263998961
14 -1.9960926132437162 0.7495755925322486 6.990900839196054
15 1.79811870204338 2.1549501030292357 2.1240399359895292
42 -1.6010979449963028 -0.3832935305336873 -1.3901724971053098
41 -4.979054608953429 1.843876744312841 -2.931238041879505
43 -2.4490475025045852 -6.6338362594593905 -3.302128104888608
45 0.37343765853209687 -4.889261753269995 -5.701340794047704
46 -3.4635887700539376 1.875095835788536 6.676126169175448
47 -0.4055513760246794 0.2207645894213237 1.9620485494706568
48 -0.8653967480179229 2.3773810161784867 1.3381713217166427
64 -0.2481093574079035 -3.2963484635882265 2.3753039930633677
52 2.0250062596374114 -1.4081157005121923 -2.2073941845224487
12 -6.735698293130425 4.179170904627677 2.1095692138938404
16 2.2919775015195016 -0.3174948778924649 2.3710665514670812
32 -0.6246884805162387 2.9147907051818467 1.1293402087248852
25 -0.1155814912469283 2.019343059789794 -1.0218144617513907
27 0.20150547462402305 4.304180511180158 -2.740010147737505
29 7.216760329773203 1.210051524132558 -2.29652008873956
31 -0.7979736373182411 -0.009468214758237838 -0.1947958183185543
58 1.5571922276255392 2.4002507577175374 1.296254743448609
30 -1.5744383688151224 -2.181991324532879 2.530795516623599
4 -0.29695876458157267 -5.431313214608745 -1.4283155742469866
63 2.219117966947776 1.2105627746419023 4.026735492633192
61 1.3615799035136689 -4.042880934651935 0.9959265365557696
26 -5.0076248758994995 -1.4658245569069184 2.0508721935508736
60 2.4132688517218623 1.7303485310890772 7.691074430587658
54 -0.03891852965324634 -3.2037570621084623 -3.552991236977802
59 1.8458706924085078 -3.909330101451289 0.7484444608880638
57 2.26677924386614 -2.4828527260249325 -1.8116451846967367
44 0.7096644101639868 0.29352100102077333 3.594552372082675
28 0.15037700727837022 -1.8975245595104702 1.6786682217800961
